[ atomtypes ]
; name      at.num  mass     charge ptype  sigma      epsilon
CT           6      12.01    0.0000  A   3.39967e-01  4.57730e-01
HC           1       1.008   0.0000  A   2.64953e-01  6.56888e-02
N            7      14.01    0.0000  A   3.25000e-01  7.11280e-01
O            8      16.00    0.0000  A   2.95992e-01  8.78640e-01
OW           8      16.00    0.0000  A   3.15061e-01  6.36386e-01
S           16      32.06    0.0000  A   3.56359e-01  1.04600e+00
